# vtk DataFile Version 3.0
vtk output at time 0.74
ASCII
DATASET UNSTRUCTURED_GRID
POINTS 27 float
-0.5 -0.5 0 -0.5 -0.5 0.5 -0.5 -0.5 1 
-0.5 0 0 -0.5 0 0.5 -0.5 0 1 
-0.5 0.5 0 -0.5 0.5 0.5 -0.5 0.5 1 
0 -0.5 0 0 -0.5 0.5 0 -0.5 1 
0 0 0 0 0 0.5 0 0 1 
0 0.5 0 0 0.5 0.5 0 0.5 1 
0.5 -0.5 0 0.5 -0.5 0.5 0.5 -0.5 1 
0.5 0 0 0.5 0 0.5 0.5 0 1 
0.5 0.5 0 0.5 0.5 0.5 0.5 0.5 1 

CELLS 8 72
8 0 9 12 3 1 10 13 4 
8 1 10 13 4 2 11 14 5 
8 3 12 15 6 4 13 16 7 
8 4 13 16 7 5 14 17 8 
8 9 18 21 12 10 19 22 13 
8 10 19 22 13 11 20 23 14 
8 12 21 24 15 13 22 25 16 
8 13 22 25 16 14 23 26 17 

CELL_TYPES 8
12
12
12
12
12
12
12
12

POINT_DATA 27
SCALARS c1 float
LOOKUP_TABLE default
0.172731
0.172731
0.172731
0.172731
0.172731
0.172731
0.172731
0.172731
0.172731
0.172683
0.172683
0.172683
0.172683
0.172683
0.172683
0.172683
0.172683
0.172683
0.172636
0.172636
0.172636
0.172636
0.172636
0.172636
0.172636
0.172636
0.172636
SCALARS c2 float
LOOKUP_TABLE default
0.0912498
0.0912498
0.0912498
0.0912498
0.0912498
0.0912498
0.0912498
0.0912498
0.0912498
0.0768575
0.0768575
0.0768575
0.0768575
0.0768575
0.0768575
0.0768575
0.0768575
0.0768575
0.0643015
0.0643015
0.0643015
0.0643015
0.0643015
0.0643015
0.0643015
0.0643015
0.0643015

CELL_DATA 8
SCALARS actual_c1 float
LOOKUP_TABLE default
0.172707
0.172707
0.172707
0.172707
0.17266
0.17266
0.17266
0.17266
SCALARS actual_c2 float
LOOKUP_TABLE default
0.0840536
0.0840536
0.0840536
0.0840536
0.0705795
0.0705795
0.0705795
0.0705795
