# vtk DataFile Version 3.0
vtk output at time 0.11
ASCII
DATASET UNSTRUCTURED_GRID
POINTS 27 float
-0.5 -0.5 0 -0.5 -0.5 0.5 -0.5 -0.5 1 
-0.5 0 0 -0.5 0 0.5 -0.5 0 1 
-0.5 0.5 0 -0.5 0.5 0.5 -0.5 0.5 1 
0 -0.5 0 0 -0.5 0.5 0 -0.5 1 
0 0 0 0 0 0.5 0 0 1 
0 0.5 0 0 0.5 0.5 0 0.5 1 
0.5 -0.5 0 0.5 -0.5 0.5 0.5 -0.5 1 
0.5 0 0 0.5 0 0.5 0.5 0 1 
0.5 0.5 0 0.5 0.5 0.5 0.5 0.5 1 

CELLS 8 72
8 0 9 12 3 1 10 13 4 
8 1 10 13 4 2 11 14 5 
8 3 12 15 6 4 13 16 7 
8 4 13 16 7 5 14 17 8 
8 9 18 21 12 10 19 22 13 
8 10 19 22 13 11 20 23 14 
8 12 21 24 15 13 22 25 16 
8 13 22 25 16 14 23 26 17 

CELL_TYPES 8
12
12
12
12
12
12
12
12

POINT_DATA 27
SCALARS c1 float
LOOKUP_TABLE default
0.363896
0.363896
0.363896
0.363896
0.363896
0.363896
0.363896
0.363896
0.363896
0.23554
0.23554
0.23554
0.23554
0.23554
0.23554
0.23554
0.23554
0.23554
0.111509
0.111509
0.111509
0.111509
0.111509
0.111509
0.111509
0.111509
0.111509
SCALARS c2 float
LOOKUP_TABLE default
0.0298137
0.0298137
0.0298137
0.0298137
0.0298137
0.0298137
0.0298137
0.0298137
0.0298137
0.0113081
0.0113081
0.0113081
0.0113081
0.0113081
0.0113081
0.0113081
0.0113081
0.0113081
0.00108497
0.00108497
0.00108497
0.00108497
0.00108497
0.00108497
0.00108497
0.00108497
0.00108497

CELL_DATA 8
SCALARS actual_c1 float
LOOKUP_TABLE default
0.299718
0.299718
0.299718
0.299718
0.173525
0.173525
0.173525
0.173525
SCALARS actual_c2 float
LOOKUP_TABLE default
0.0205609
0.0205609
0.0205609
0.0205609
0.00619655
0.00619655
0.00619655
0.00619655
