# vtk DataFile Version 3.0
vtk output at time 0.71
ASCII
DATASET UNSTRUCTURED_GRID
POINTS 27 float
-0.5 -0.5 0 -0.5 -0.5 0.5 -0.5 -0.5 1 
-0.5 0 0 -0.5 0 0.5 -0.5 0 1 
-0.5 0.5 0 -0.5 0.5 0.5 -0.5 0.5 1 
0 -0.5 0 0 -0.5 0.5 0 -0.5 1 
0 0 0 0 0 0.5 0 0 1 
0 0.5 0 0 0.5 0.5 0 0.5 1 
0.5 -0.5 0 0.5 -0.5 0.5 0.5 -0.5 1 
0.5 0 0 0.5 0 0.5 0.5 0 1 
0.5 0.5 0 0.5 0.5 0.5 0.5 0.5 1 

CELLS 8 72
8 0 9 12 3 1 10 13 4 
8 1 10 13 4 2 11 14 5 
8 3 12 15 6 4 13 16 7 
8 4 13 16 7 5 14 17 8 
8 9 18 21 12 10 19 22 13 
8 10 19 22 13 11 20 23 14 
8 12 21 24 15 13 22 25 16 
8 13 22 25 16 14 23 26 17 

CELL_TYPES 8
12
12
12
12
12
12
12
12

POINT_DATA 27
SCALARS c1 float
LOOKUP_TABLE default
0.175362
0.175362
0.175362
0.175362
0.175362
0.175362
0.175362
0.175362
0.175362
0.175293
0.175293
0.175293
0.175293
0.175293
0.175293
0.175293
0.175293
0.175293
0.175224
0.175224
0.175224
0.175224
0.175224
0.175224
0.175224
0.175224
0.175224
SCALARS c2 float
LOOKUP_TABLE default
0.0889181
0.0889181
0.0889181
0.0889181
0.0889181
0.0889181
0.0889181
0.0889181
0.0889181
0.0742134
0.0742134
0.0742134
0.0742134
0.0742134
0.0742134
0.0742134
0.0742134
0.0742134
0.0614821
0.0614821
0.0614821
0.0614821
0.0614821
0.0614821
0.0614821
0.0614821
0.0614821

CELL_DATA 8
SCALARS actual_c1 float
LOOKUP_TABLE default
0.175328
0.175328
0.175328
0.175328
0.175259
0.175259
0.175259
0.175259
SCALARS actual_c2 float
LOOKUP_TABLE default
0.0815658
0.0815658
0.0815658
0.0815658
0.0678478
0.0678478
0.0678478
0.0678478
