# vtk DataFile Version 3.0
vtk output at time 0.36
ASCII
DATASET UNSTRUCTURED_GRID
POINTS 27 float
-0.5 -0.5 0 -0.5 -0.5 0.5 -0.5 -0.5 1 
-0.5 0 0 -0.5 0 0.5 -0.5 0 1 
-0.5 0.5 0 -0.5 0.5 0.5 -0.5 0.5 1 
0 -0.5 0 0 -0.5 0.5 0 -0.5 1 
0 0 0 0 0 0.5 0 0 1 
0 0.5 0 0 0.5 0.5 0 0.5 1 
0.5 -0.5 0 0.5 -0.5 0.5 0.5 -0.5 1 
0.5 0 0 0.5 0 0.5 0.5 0 1 
0.5 0.5 0 0.5 0.5 0.5 0.5 0.5 1 

CELLS 8 72
8 0 9 12 3 1 10 13 4 
8 1 10 13 4 2 11 14 5 
8 3 12 15 6 4 13 16 7 
8 4 13 16 7 5 14 17 8 
8 9 18 21 12 10 19 22 13 
8 10 19 22 13 11 20 23 14 
8 12 21 24 15 13 22 25 16 
8 13 22 25 16 14 23 26 17 

CELL_TYPES 8
12
12
12
12
12
12
12
12

POINT_DATA 27
SCALARS c1 float
LOOKUP_TABLE default
0.214339
0.214339
0.214339
0.214339
0.214339
0.214339
0.214339
0.214339
0.214339
0.208817
0.208817
0.208817
0.208817
0.208817
0.208817
0.208817
0.208817
0.208817
0.203296
0.203296
0.203296
0.203296
0.203296
0.203296
0.203296
0.203296
0.203296
SCALARS c2 float
LOOKUP_TABLE default
0.0590205
0.0590205
0.0590205
0.0590205
0.0590205
0.0590205
0.0590205
0.0590205
0.0590205
0.0400398
0.0400398
0.0400398
0.0400398
0.0400398
0.0400398
0.0400398
0.0400398
0.0400398
0.0256301
0.0256301
0.0256301
0.0256301
0.0256301
0.0256301
0.0256301
0.0256301
0.0256301

CELL_DATA 8
SCALARS actual_c1 float
LOOKUP_TABLE default
0.211578
0.211578
0.211578
0.211578
0.206056
0.206056
0.206056
0.206056
SCALARS actual_c2 float
LOOKUP_TABLE default
0.0495301
0.0495301
0.0495301
0.0495301
0.0328349
0.0328349
0.0328349
0.0328349
