# vtk DataFile Version 3.0
vtk output at time 0.62
ASCII
DATASET UNSTRUCTURED_GRID
POINTS 27 float
-0.5 -0.5 0 -0.5 -0.5 0.5 -0.5 -0.5 1 
-0.5 0 0 -0.5 0 0.5 -0.5 0 1 
-0.5 0.5 0 -0.5 0.5 0.5 -0.5 0.5 1 
0 -0.5 0 0 -0.5 0.5 0 -0.5 1 
0 0 0 0 0 0.5 0 0 1 
0 0.5 0 0 0.5 0.5 0 0.5 1 
0.5 -0.5 0 0.5 -0.5 0.5 0.5 -0.5 1 
0.5 0 0 0.5 0 0.5 0.5 0 1 
0.5 0.5 0 0.5 0.5 0.5 0.5 0.5 1 

CELLS 8 72
8 0 9 12 3 1 10 13 4 
8 1 10 13 4 2 11 14 5 
8 3 12 15 6 4 13 16 7 
8 4 13 16 7 5 14 17 8 
8 9 18 21 12 10 19 22 13 
8 10 19 22 13 11 20 23 14 
8 12 21 24 15 13 22 25 16 
8 13 22 25 16 14 23 26 17 

CELL_TYPES 8
12
12
12
12
12
12
12
12

POINT_DATA 27
SCALARS c1 float
LOOKUP_TABLE default
0.183575
0.183575
0.183575
0.183575
0.183575
0.183575
0.183575
0.183575
0.183575
0.183362
0.183362
0.183362
0.183362
0.183362
0.183362
0.183362
0.183362
0.183362
0.183148
0.183148
0.183148
0.183148
0.183148
0.183148
0.183148
0.183148
0.183148
SCALARS c2 float
LOOKUP_TABLE default
0.0817239
0.0817239
0.0817239
0.0817239
0.0817239
0.0817239
0.0817239
0.0817239
0.0817239
0.0660261
0.0660261
0.0660261
0.0660261
0.0660261
0.0660261
0.0660261
0.0660261
0.0660261
0.0527774
0.0527774
0.0527774
0.0527774
0.0527774
0.0527774
0.0527774
0.0527774
0.0527774

CELL_DATA 8
SCALARS actual_c1 float
LOOKUP_TABLE default
0.183468
0.183468
0.183468
0.183468
0.183255
0.183255
0.183255
0.183255
SCALARS actual_c2 float
LOOKUP_TABLE default
0.073875
0.073875
0.073875
0.073875
0.0594018
0.0594018
0.0594018
0.0594018
