# vtk DataFile Version 3.0
vtk output at time 0.57
ASCII
DATASET UNSTRUCTURED_GRID
POINTS 27 float
-0.5 -0.5 0 -0.5 -0.5 0.5 -0.5 -0.5 1 
-0.5 0 0 -0.5 0 0.5 -0.5 0 1 
-0.5 0.5 0 -0.5 0.5 0.5 -0.5 0.5 1 
0 -0.5 0 0 -0.5 0.5 0 -0.5 1 
0 0 0 0 0 0.5 0 0 1 
0 0.5 0 0 0.5 0.5 0 0.5 1 
0.5 -0.5 0 0.5 -0.5 0.5 0.5 -0.5 1 
0.5 0 0 0.5 0 0.5 0.5 0 1 
0.5 0.5 0 0.5 0.5 0.5 0.5 0.5 1 

CELLS 8 72
8 0 9 12 3 1 10 13 4 
8 1 10 13 4 2 11 14 5 
8 3 12 15 6 4 13 16 7 
8 4 13 16 7 5 14 17 8 
8 9 18 21 12 10 19 22 13 
8 10 19 22 13 11 20 23 14 
8 12 21 24 15 13 22 25 16 
8 13 22 25 16 14 23 26 17 

CELL_TYPES 8
12
12
12
12
12
12
12
12

POINT_DATA 27
SCALARS c1 float
LOOKUP_TABLE default
0.188402
0.188402
0.188402
0.188402
0.188402
0.188402
0.188402
0.188402
0.188402
0.188003
0.188003
0.188003
0.188003
0.188003
0.188003
0.188003
0.188003
0.188003
0.187605
0.187605
0.187605
0.187605
0.187605
0.187605
0.187605
0.187605
0.187605
SCALARS c2 float
LOOKUP_TABLE default
0.0775934
0.0775934
0.0775934
0.0775934
0.0775934
0.0775934
0.0775934
0.0775934
0.0775934
0.0613062
0.0613062
0.0613062
0.0613062
0.0613062
0.0613062
0.0613062
0.0613062
0.0613062
0.0477804
0.0477804
0.0477804
0.0477804
0.0477804
0.0477804
0.0477804
0.0477804
0.0477804

CELL_DATA 8
SCALARS actual_c1 float
LOOKUP_TABLE default
0.188203
0.188203
0.188203
0.188203
0.187804
0.187804
0.187804
0.187804
SCALARS actual_c2 float
LOOKUP_TABLE default
0.0694498
0.0694498
0.0694498
0.0694498
0.0545433
0.0545433
0.0545433
0.0545433
