# vtk DataFile Version 3.0
vtk output at time 0.51
ASCII
DATASET UNSTRUCTURED_GRID
POINTS 27 float
-0.5 -0.5 0 -0.5 -0.5 0.5 -0.5 -0.5 1 
-0.5 0 0 -0.5 0 0.5 -0.5 0 1 
-0.5 0.5 0 -0.5 0.5 0.5 -0.5 0.5 1 
0 -0.5 0 0 -0.5 0.5 0 -0.5 1 
0 0 0 0 0 0.5 0 0 1 
0 0.5 0 0 0.5 0.5 0 0.5 1 
0.5 -0.5 0 0.5 -0.5 0.5 0.5 -0.5 1 
0.5 0 0 0.5 0 0.5 0.5 0 1 
0.5 0.5 0 0.5 0.5 0.5 0.5 0.5 1 

CELLS 8 72
8 0 9 12 3 1 10 13 4 
8 1 10 13 4 2 11 14 5 
8 3 12 15 6 4 13 16 7 
8 4 13 16 7 5 14 17 8 
8 9 18 21 12 10 19 22 13 
8 10 19 22 13 11 20 23 14 
8 12 21 24 15 13 22 25 16 
8 13 22 25 16 14 23 26 17 

CELL_TYPES 8
12
12
12
12
12
12
12
12

POINT_DATA 27
SCALARS c1 float
LOOKUP_TABLE default
0.194574
0.194574
0.194574
0.194574
0.194574
0.194574
0.194574
0.194574
0.194574
0.193729
0.193729
0.193729
0.193729
0.193729
0.193729
0.193729
0.193729
0.193729
0.192884
0.192884
0.192884
0.192884
0.192884
0.192884
0.192884
0.192884
0.192884
SCALARS c2 float
LOOKUP_TABLE default
0.0725031
0.0725031
0.0725031
0.0725031
0.0725031
0.0725031
0.0725031
0.0725031
0.0725031
0.0554737
0.0554737
0.0554737
0.0554737
0.0554737
0.0554737
0.0554737
0.0554737
0.0554737
0.0416335
0.0416335
0.0416335
0.0416335
0.0416335
0.0416335
0.0416335
0.0416335
0.0416335

CELL_DATA 8
SCALARS actual_c1 float
LOOKUP_TABLE default
0.194151
0.194151
0.194151
0.194151
0.193307
0.193307
0.193307
0.193307
SCALARS actual_c2 float
LOOKUP_TABLE default
0.0639884
0.0639884
0.0639884
0.0639884
0.0485536
0.0485536
0.0485536
0.0485536
