# vtk DataFile Version 3.0
vtk output at time 0.98
ASCII
DATASET UNSTRUCTURED_GRID
POINTS 27 float
-0.5 -0.5 0 -0.5 -0.5 0.5 -0.5 -0.5 1 
-0.5 0 0 -0.5 0 0.5 -0.5 0 1 
-0.5 0.5 0 -0.5 0.5 0.5 -0.5 0.5 1 
0 -0.5 0 0 -0.5 0.5 0 -0.5 1 
0 0 0 0 0 0.5 0 0 1 
0 0.5 0 0 0.5 0.5 0 0.5 1 
0.5 -0.5 0 0.5 -0.5 0.5 0.5 -0.5 1 
0.5 0 0 0.5 0 0.5 0.5 0 1 
0.5 0.5 0 0.5 0.5 0.5 0.5 0.5 1 

CELLS 8 72
8 0 9 12 3 1 10 13 4 
8 1 10 13 4 2 11 14 5 
8 3 12 15 6 4 13 16 7 
8 4 13 16 7 5 14 17 8 
8 9 18 21 12 10 19 22 13 
8 10 19 22 13 11 20 23 14 
8 12 21 24 15 13 22 25 16 
8 13 22 25 16 14 23 26 17 

CELL_TYPES 8
12
12
12
12
12
12
12
12

POINT_DATA 27
SCALARS c1 float
LOOKUP_TABLE default
0.153159
0.153159
0.153159
0.153159
0.153159
0.153159
0.153159
0.153159
0.153159
0.153156
0.153156
0.153156
0.153156
0.153156
0.153156
0.153156
0.153156
0.153156
0.153154
0.153154
0.153154
0.153154
0.153154
0.153154
0.153154
0.153154
0.153154
SCALARS c2 float
LOOKUP_TABLE default
0.10877
0.10877
0.10877
0.10877
0.10877
0.10877
0.10877
0.10877
0.10877
0.0965855
0.0965855
0.0965855
0.0965855
0.0965855
0.0965855
0.0965855
0.0965855
0.0965855
0.0854329
0.0854329
0.0854329
0.0854329
0.0854329
0.0854329
0.0854329
0.0854329
0.0854329

CELL_DATA 8
SCALARS actual_c1 float
LOOKUP_TABLE default
0.153158
0.153158
0.153158
0.153158
0.153155
0.153155
0.153155
0.153155
SCALARS actual_c2 float
LOOKUP_TABLE default
0.102678
0.102678
0.102678
0.102678
0.0910092
0.0910092
0.0910092
0.0910092
